<VTKFile type="UnstructuredGrid" byte_order="BigEndian">
<UnstructuredGrid><Piece NumberOfPoints="9" NumberOfCells="4">
<Points>
 <DataArray type="Float32" NumberOfComponents="3" format="ascii">
 0.000000000000000000e+00 0.000000000000000000e+00 0.000000000000000000e+00
 4.999999888241291046e-03 0.000000000000000000e+00 0.000000000000000000e+00
 9.999999776482582092e-03 0.000000000000000000e+00 0.000000000000000000e+00
 0.000000000000000000e+00 4.999999888241291046e-03 0.000000000000000000e+00
 4.999999888241291046e-03 4.999999888241291046e-03 0.000000000000000000e+00
 9.999999776482582092e-03 4.999999888241291046e-03 0.000000000000000000e+00
 0.000000000000000000e+00 9.999999776482582092e-03 0.000000000000000000e+00
 4.999999888241291046e-03 9.999999776482582092e-03 0.000000000000000000e+00
 9.999999776482582092e-03 9.999999776482582092e-03 0.000000000000000000e+00
 </DataArray>
</Points>
<Cells>
 <DataArray type="Int32" Name="connectivity" format="ascii">
 0 1 4 3
 1 2 5 4
 3 4 7 6
 4 5 8 7
 </DataArray>
 <DataArray type="Int32" Name="offsets" format="ascii">
 4
 8
 12
 16
 </DataArray>
 <DataArray type="UInt8" Name="types" format="ascii">
 9
 9
 9
 9
 </DataArray>
</Cells>
<CellData>
 <DataArray Name="pos.x" type="Float32" NumberOfComponents="1" format="ascii">
 2.500000000000000052e-03
 7.500000000000000590e-03
 2.500000000000000052e-03
 7.500000000000000590e-03
 </DataArray>
 <DataArray Name="pos.y" type="Float32" NumberOfComponents="1" format="ascii">
 2.500000000000000052e-03
 2.500000000000000052e-03
 7.500000000000000590e-03
 7.500000000000000590e-03
 </DataArray>
 <DataArray Name="pos.z" type="Float32" NumberOfComponents="1" format="ascii">
 0.000000000000000000e+00
 0.000000000000000000e+00
 0.000000000000000000e+00
 0.000000000000000000e+00
 </DataArray>
 <DataArray Name="volume" type="Float32" NumberOfComponents="1" format="ascii">
 2.500000000000000120e-05
 2.500000000000000120e-05
 2.500000000000000120e-05
 2.500000000000000120e-05
 </DataArray>
 <DataArray Name="rho" type="Float32" NumberOfComponents="1" format="ascii">
 1.093956984448006681e-01
 1.093956984448394981e-01
 1.093956984448394981e-01
 1.093956984448595238e-01
 </DataArray>
 <DataArray Name="vel.x" type="Float32" NumberOfComponents="1" format="ascii">
 -4.656350901435217978e-11
 3.615709809450132617e-11
 -4.831895474361320291e-11
 3.960656968198047131e-11
 </DataArray>
 <DataArray Name="vel.y" type="Float32" NumberOfComponents="1" format="ascii">
 -4.656350899832863795e-11
 -4.831895472730827750e-11
 3.615709807931227387e-11
 3.960656966538037814e-11
 </DataArray>
 <DataArray Name="vel.z" type="Float32" NumberOfComponents="1" format="ascii">
 0.000000000000000000e+00
 0.000000000000000000e+00
 0.000000000000000000e+00
 0.000000000000000000e+00
 </DataArray>
 <DataArray Name="p" type="Float32" NumberOfComponents="1" format="ascii">
 3.039750185322046309e+04
 3.039750185323047117e+04
 3.039750185323047117e+04
 3.039750185324004997e+04
 </DataArray>
 <DataArray Name="a" type="Float32" NumberOfComponents="1" format="ascii">
 6.132714307408217564e+02
 6.132714307408177774e+02
 6.132714307408177774e+02
 6.132714307408647301e+02
 </DataArray>
 <DataArray Name="mu" type="Float32" NumberOfComponents="1" format="ascii">
 3.821463283270150812e-05
 3.821463283270150812e-05
 3.821463283270150812e-05
 3.821463283270150812e-05
 </DataArray>
 <DataArray Name="k" type="Float32" NumberOfComponents="1" format="ascii">
 6.041234804123033625e-02
 6.041234804123033625e-02
 6.041234804123033625e-02
 6.041234804123033625e-02
 </DataArray>
 <DataArray Name="mu_t" type="Float32" NumberOfComponents="1" format="ascii">
 0.000000000000000000e+00
 0.000000000000000000e+00
 0.000000000000000000e+00
 0.000000000000000000e+00
 </DataArray>
 <DataArray Name="k_t" type="Float32" NumberOfComponents="1" format="ascii">
 0.000000000000000000e+00
 0.000000000000000000e+00
 0.000000000000000000e+00
 0.000000000000000000e+00
 </DataArray>
 <DataArray Name="S" type="Float32" NumberOfComponents="1" format="ascii">
 0.000000000000000000e+00
 0.000000000000000000e+00
 0.000000000000000000e+00
 0.000000000000000000e+00
 </DataArray>
 <DataArray Name="massf[0]-H" type="Float32" NumberOfComponents="1" format="ascii">
 2.949932136647802577e-09
 2.949932136542200978e-09
 2.949932136542200978e-09
 2.949932136504771469e-09
 </DataArray>
 <DataArray Name="massf[1]-H2" type="Float32" NumberOfComponents="1" format="ascii">
 4.999991083511582703e-03
 4.999991083522177526e-03
 4.999991083522177526e-03
 4.999991083550896741e-03
 </DataArray>
 <DataArray Name="massf[2]-O" type="Float32" NumberOfComponents="1" format="ascii">
 4.742752754548724953e-10
 4.742752754361616698e-10
 4.742752754361616698e-10
 4.742752754290292016e-10
 </DataArray>
 <DataArray Name="massf[3]-O2" type="Float32" NumberOfComponents="1" format="ascii">
 4.999952103953242931e-03
 4.999952103947262472e-03
 4.999952103947262472e-03
 4.999952103966821479e-03
 </DataArray>
 <DataArray Name="massf[4]-H2O2" type="Float32" NumberOfComponents="1" format="ascii">
 4.764901680454939667e-13
 4.764901680447606920e-13
 4.764901680447606920e-13
 4.764901680460656826e-13
 </DataArray>
 <DataArray Name="massf[5]-H2O" type="Float32" NumberOfComponents="1" format="ascii">
 5.325063524766337214e-08
 5.325063524575097027e-08
 5.325063524575097027e-08
 5.325063524507393287e-08
 </DataArray>
 <DataArray Name="massf[6]-HO2" type="Float32" NumberOfComponents="1" format="ascii">
 1.556015208310259324e-11
 1.556015208308302525e-11
 1.556015208308302525e-11
 1.556015208312353125e-11
 </DataArray>
 <DataArray Name="massf[7]-OH" type="Float32" NumberOfComponents="1" format="ascii">
 1.212435260942906987e-10
 1.212435260894497017e-10
 1.212435260894497017e-10
 1.212435260875480135e-10
 </DataArray>
 <DataArray Name="massf[8]-Ar" type="Float32" NumberOfComponents="1" format="ascii">
 0.000000000000000000e+00
 0.000000000000000000e+00
 0.000000000000000000e+00
 0.000000000000000000e+00
 </DataArray>
 <DataArray Name="massf[9]-He" type="Float32" NumberOfComponents="1" format="ascii">
 0.000000000000000000e+00
 0.000000000000000000e+00
 0.000000000000000000e+00
 0.000000000000000000e+00
 </DataArray>
 <DataArray Name="massf[10]-N2" type="Float32" NumberOfComponents="1" format="ascii">
 9.900000000004123279e-01
 9.900000000004077760e-01
 9.900000000004077760e-01
 9.900000000003594813e-01
 </DataArray>
 <DataArray Name="dt_chem" type="Float32" NumberOfComponents="1" format="ascii">
 -1.000000000000000000e+00
 -1.000000000000000000e+00
 -1.000000000000000000e+00
 -1.000000000000000000e+00
 </DataArray>
 <DataArray Name="u" type="Float32" NumberOfComponents="1" format="ascii">
 3.887432022033035173e+05
 3.887432022032291861e+05
 3.887432022032291861e+05
 3.887432022031899542e+05
 </DataArray>
 <DataArray Name="T" type="Float32" NumberOfComponents="1" format="ascii">
 8.800000752742794248e+02
 8.800000752741432279e+02
 8.800000752741432279e+02
 8.800000752739549625e+02
 </DataArray>
 <DataArray Name="vel.vector" type="Float32" NumberOfComponents="3" format="ascii">
 -4.656350999221459119e-11 -4.656350999221459119e-11 0.000000000000000000e+00
 3.615709814885903484e-11 -4.831895300538846527e-11 0.000000000000000000e+00
 -4.831895647483541723e-11 3.615709814885903484e-11 0.000000000000000000e+00
 3.960656802526330011e-11 3.960656802526330011e-11 0.000000000000000000e+00
 </DataArray>
</CellData>
</Piece>
</UnstructuredGrid>
</VTKFile>
