<VTKFile type="UnstructuredGrid" byte_order="BigEndian">
<UnstructuredGrid><Piece NumberOfPoints="9" NumberOfCells="4">
<Points>
 <DataArray type="Float32" NumberOfComponents="3" format="ascii">
 0.000000000000000000e+00 0.000000000000000000e+00 0.000000000000000000e+00
 4.999999888241291046e-03 0.000000000000000000e+00 0.000000000000000000e+00
 9.999999776482582092e-03 0.000000000000000000e+00 0.000000000000000000e+00
 0.000000000000000000e+00 4.999999888241291046e-03 0.000000000000000000e+00
 4.999999888241291046e-03 4.999999888241291046e-03 0.000000000000000000e+00
 9.999999776482582092e-03 4.999999888241291046e-03 0.000000000000000000e+00
 0.000000000000000000e+00 9.999999776482582092e-03 0.000000000000000000e+00
 4.999999888241291046e-03 9.999999776482582092e-03 0.000000000000000000e+00
 9.999999776482582092e-03 9.999999776482582092e-03 0.000000000000000000e+00
 </DataArray>
</Points>
<Cells>
 <DataArray type="Int32" Name="connectivity" format="ascii">
 0 1 4 3
 1 2 5 4
 3 4 7 6
 4 5 8 7
 </DataArray>
 <DataArray type="Int32" Name="offsets" format="ascii">
 4
 8
 12
 16
 </DataArray>
 <DataArray type="UInt8" Name="types" format="ascii">
 9
 9
 9
 9
 </DataArray>
</Cells>
<CellData>
 <DataArray Name="pos.x" type="Float32" NumberOfComponents="1" format="ascii">
 2.500000000000000052e-03
 7.500000000000000590e-03
 2.500000000000000052e-03
 7.500000000000000590e-03
 </DataArray>
 <DataArray Name="pos.y" type="Float32" NumberOfComponents="1" format="ascii">
 2.500000000000000052e-03
 2.500000000000000052e-03
 7.500000000000000590e-03
 7.500000000000000590e-03
 </DataArray>
 <DataArray Name="pos.z" type="Float32" NumberOfComponents="1" format="ascii">
 0.000000000000000000e+00
 0.000000000000000000e+00
 0.000000000000000000e+00
 0.000000000000000000e+00
 </DataArray>
 <DataArray Name="volume" type="Float32" NumberOfComponents="1" format="ascii">
 2.500000000000000120e-05
 2.500000000000000120e-05
 2.500000000000000120e-05
 2.500000000000000120e-05
 </DataArray>
 <DataArray Name="rho" type="Float32" NumberOfComponents="1" format="ascii">
 1.093957011326466833e-01
 1.093957011326466833e-01
 1.093957011326466833e-01
 1.093957011326466833e-01
 </DataArray>
 <DataArray Name="vel.x" type="Float32" NumberOfComponents="1" format="ascii">
 0.000000000000000000e+00
 0.000000000000000000e+00
 0.000000000000000000e+00
 0.000000000000000000e+00
 </DataArray>
 <DataArray Name="vel.y" type="Float32" NumberOfComponents="1" format="ascii">
 0.000000000000000000e+00
 0.000000000000000000e+00
 0.000000000000000000e+00
 0.000000000000000000e+00
 </DataArray>
 <DataArray Name="vel.z" type="Float32" NumberOfComponents="1" format="ascii">
 0.000000000000000000e+00
 0.000000000000000000e+00
 0.000000000000000000e+00
 0.000000000000000000e+00
 </DataArray>
 <DataArray Name="p" type="Float32" NumberOfComponents="1" format="ascii">
 3.039750000000000000e+04
 3.039750000000000000e+04
 3.039750000000000000e+04
 3.039750000000000000e+04
 </DataArray>
 <DataArray Name="a" type="Float32" NumberOfComponents="1" format="ascii">
 6.132714057365982399e+02
 6.132714057365982399e+02
 6.132714057365982399e+02
 6.132714057365982399e+02
 </DataArray>
 <DataArray Name="mu" type="Float32" NumberOfComponents="1" format="ascii">
 3.821463283270150812e-05
 3.821463283270150812e-05
 3.821463283270150812e-05
 3.821463283270150812e-05
 </DataArray>
 <DataArray Name="k" type="Float32" NumberOfComponents="1" format="ascii">
 6.041234804123033625e-02
 6.041234804123033625e-02
 6.041234804123033625e-02
 6.041234804123033625e-02
 </DataArray>
 <DataArray Name="mu_t" type="Float32" NumberOfComponents="1" format="ascii">
 0.000000000000000000e+00
 0.000000000000000000e+00
 0.000000000000000000e+00
 0.000000000000000000e+00
 </DataArray>
 <DataArray Name="k_t" type="Float32" NumberOfComponents="1" format="ascii">
 0.000000000000000000e+00
 0.000000000000000000e+00
 0.000000000000000000e+00
 0.000000000000000000e+00
 </DataArray>
 <DataArray Name="S" type="Float32" NumberOfComponents="1" format="ascii">
 0.000000000000000000e+00
 0.000000000000000000e+00
 0.000000000000000000e+00
 0.000000000000000000e+00
 </DataArray>
 <DataArray Name="massf[0]-H" type="Float32" NumberOfComponents="1" format="ascii">
 0.000000000000000000e+00
 0.000000000000000000e+00
 0.000000000000000000e+00
 0.000000000000000000e+00
 </DataArray>
 <DataArray Name="massf[1]-H2" type="Float32" NumberOfComponents="1" format="ascii">
 5.000000000000000104e-03
 5.000000000000000104e-03
 5.000000000000000104e-03
 5.000000000000000104e-03
 </DataArray>
 <DataArray Name="massf[2]-O" type="Float32" NumberOfComponents="1" format="ascii">
 0.000000000000000000e+00
 0.000000000000000000e+00
 0.000000000000000000e+00
 0.000000000000000000e+00
 </DataArray>
 <DataArray Name="massf[3]-O2" type="Float32" NumberOfComponents="1" format="ascii">
 5.000000000000000104e-03
 5.000000000000000104e-03
 5.000000000000000104e-03
 5.000000000000000104e-03
 </DataArray>
 <DataArray Name="massf[4]-H2O2" type="Float32" NumberOfComponents="1" format="ascii">
 0.000000000000000000e+00
 0.000000000000000000e+00
 0.000000000000000000e+00
 0.000000000000000000e+00
 </DataArray>
 <DataArray Name="massf[5]-H2O" type="Float32" NumberOfComponents="1" format="ascii">
 0.000000000000000000e+00
 0.000000000000000000e+00
 0.000000000000000000e+00
 0.000000000000000000e+00
 </DataArray>
 <DataArray Name="massf[6]-HO2" type="Float32" NumberOfComponents="1" format="ascii">
 0.000000000000000000e+00
 0.000000000000000000e+00
 0.000000000000000000e+00
 0.000000000000000000e+00
 </DataArray>
 <DataArray Name="massf[7]-OH" type="Float32" NumberOfComponents="1" format="ascii">
 0.000000000000000000e+00
 0.000000000000000000e+00
 0.000000000000000000e+00
 0.000000000000000000e+00
 </DataArray>
 <DataArray Name="massf[8]-Ar" type="Float32" NumberOfComponents="1" format="ascii">
 0.000000000000000000e+00
 0.000000000000000000e+00
 0.000000000000000000e+00
 0.000000000000000000e+00
 </DataArray>
 <DataArray Name="massf[9]-He" type="Float32" NumberOfComponents="1" format="ascii">
 0.000000000000000000e+00
 0.000000000000000000e+00
 0.000000000000000000e+00
 0.000000000000000000e+00
 </DataArray>
 <DataArray Name="massf[10]-N2" type="Float32" NumberOfComponents="1" format="ascii">
 9.899999999999999911e-01
 9.899999999999999911e-01
 9.899999999999999911e-01
 9.899999999999999911e-01
 </DataArray>
 <DataArray Name="dt_chem" type="Float32" NumberOfComponents="1" format="ascii">
 -1.000000000000000000e+00
 -1.000000000000000000e+00
 -1.000000000000000000e+00
 -1.000000000000000000e+00
 </DataArray>
 <DataArray Name="u" type="Float32" NumberOfComponents="1" format="ascii">
 3.887432090311941574e+05
 3.887432090311941574e+05
 3.887432090311941574e+05
 3.887432090311941574e+05
 </DataArray>
 <DataArray Name="T" type="Float32" NumberOfComponents="1" format="ascii">
 8.800000000000000000e+02
 8.800000000000000000e+02
 8.800000000000000000e+02
 8.800000000000000000e+02
 </DataArray>
 <DataArray Name="vel.vector" type="Float32" NumberOfComponents="3" format="ascii">
 0.000000000000000000e+00 0.000000000000000000e+00 0.000000000000000000e+00
 0.000000000000000000e+00 0.000000000000000000e+00 0.000000000000000000e+00
 0.000000000000000000e+00 0.000000000000000000e+00 0.000000000000000000e+00
 0.000000000000000000e+00 0.000000000000000000e+00 0.000000000000000000e+00
 </DataArray>
</CellData>
</Piece>
</UnstructuredGrid>
</VTKFile>
